ITEM: TIMESTEP
0
ITEM: NUMBER OF ATOMS
6
ITEM: BOX BOUNDS pp pp pp
0 8
0 8
0 12
ITEM: ATOMS id type x y z vx vy vz fx fy fz omegax omegay omegaz radius 
71 1 0.844753 4.447951 0.601764 0 0 0 0 0 0 0 0 0 0.5 
2 1 2.15321 4.341035 0.603748 0 0 0 0 0 0 0 0 0 0.5 
724 1 3.11883 4.590175 0.504698 0 0 0 0 0 0 0 0 0 0.5 
87 1 4.12983 4.632736 0.513407 0 0 0 0 0 0 0 0 0 0.5 
288 1 5.76804 4.0445993 0.53465 0 0 0 -0.0576995 -0.00964019 0.00085939 0 0 0 0.5 
341 1 6.75426 4.209373 0.519961 0 0 0 0.0576995 0.00964019 -0.00085939 0 0 0 0.5 