ITEM: TIMESTEP
2000000
ITEM: NUMBER OF ATOMS
587
ITEM: BOX BOUNDS pp pp pp
0 8
0 8
0 12
ITEM: ATOMS id type diameter density x y z 
73 1 1 1 1.88117 0.510563 0.570382 
493 1 1 1 6.13498 0.223816 0.589492 
313 1 1 1 0.300132 0.751069 0.502031 
304 1 1 1 3.5844 1.16033 0.541647 
366 1 1 1 4.86807 1.14478 0.64419 
69 1 1 1 1.58438 1.93274 0.646939 
556 1 1 1 7.94102 1.8184 0.538575 
315 1 1 1 0.691197 2.62317 0.522081 
341 1 1 1 2.57093 2.22821 0.604299 
277 1 1 1 3.5124 2.60747 0.500474 
542 1 1 1 5.74821 3.32701 0.652998 
430 1 1 1 2.22939 3.99635 0.564605 
50 1 1 1 3.15622 3.59729 0.608528 
406 1 1 1 4.22966 3.89166 0.587371 
383 1 1 1 1.2711 4.37728 0.568884 
43 1 1 1 7.58628 4.02345 0.561917 
368 1 1 1 0.372969 4.99508 0.635432 
154 1 1 1 2.90232 5.11308 0.508465 
62 1 1 1 7.14807 5.25469 0.530875 
190 1 1 1 1.09717 5.74827 0.503732 
326 1 1 1 3.88554 5.86697 0.628027 
115 1 1 1 5.04068 5.9687 0.544114 
236 1 1 1 6.04437 6.12618 0.523953 
509 1 1 1 0.757473 6.83014 0.615807 
520 1 1 1 2.00781 7.1193 0.570623 
61 1 1 1 3.16677 7.30681 0.608467 
515 1 1 1 5.13824 6.98365 0.627416 
359 1 1 1 6.60213 6.99647 0.655584 
522 1 1 1 7.14121 7.94155 0.599351 
502 1 1 1 3.02261 0.326187 0.704527 
396 1 1 1 4.14695 0.197811 0.741914 
33 1 1 1 5.09204 0.0212689 1.24382 
292 1 1 1 0.945398 0.715051 1.26599 
83 1 1 1 7.17422 1.28358 0.944818 
423 1 1 1 3.99137 1.883 1.18431 
586 1 1 1 6.15126 1.39123 0.797522 
249 1 1 1 5.41342 2.10104 0.78732 
320 1 1 1 6.77825 2.26815 0.742592 
297 1 1 1 1.72126 2.94292 0.836093 
321 1 1 1 6.80087 3.27647 0.702025 
324 1 1 1 7.8337 2.80031 1.02011 
358 1 1 1 0.539038 3.87419 1.10087 
449 1 1 1 5.00648 3.85726 1.32999 
513 1 1 1 3.55155 4.46759 1.10175 
8 1 1 1 6.0899 4.28951 0.683851 
545 1 1 1 1.92016 5.16017 0.711276 
108 1 1 1 2.9076 6.41253 1.03649 
65 1 1 1 7.30342 6.09506 1.05952 
276 1 1 1 4.11559 7.01229 0.765366 
575 1 1 1 0.0316739 7.76153 1.06451 
327 1 1 1 1.08026 7.8072 0.693801 
511 1 1 1 6.80693 0.133876 1.74414 
478 1 1 1 2.23322 0.725027 1.49042 
398 1 1 1 3.70851 0.71263 1.61705 
153 1 1 1 5.43081 0.818909 1.97117 
234 1 1 1 7.82164 0.696447 1.45849 
68 1 1 1 1.65274 1.50899 1.97014 
113 1 1 1 3.01589 1.4657 1.36561 
191 1 1 1 0.894516 2.02067 1.37742 
252 1 1 1 2.22162 2.36375 1.69389 
74 1 1 1 3.23594 2.40437 1.69139 
240 1 1 1 5.11636 2.39591 1.73764 
316 1 1 1 6.04132 2.60229 1.39116 
66 1 1 1 7.88153 2.36708 1.94384 
479 1 1 1 1.13 3.25104 1.61333 
82 1 1 1 7.16801 3.2701 1.76274 
274 1 1 1 2.43094 3.38174 1.68267 
284 1 1 1 3.85341 3.52911 1.44119 
379 1 1 1 6.03123 3.92954 1.62721 
572 1 1 1 1.68531 4.12176 1.65426 
393 1 1 1 6.99433 4.30669 1.4058 
85 1 1 1 7.93681 4.26631 1.81426 
370 1 1 1 0.896539 4.85657 1.57024 
349 1 1 1 2.65577 4.73257 1.47661 
282 1 1 1 4.34558 5.12103 1.36276 
421 1 1 1 5.48712 4.83282 1.45332 
559 1 1 1 6.66328 5.29099 1.47221 
446 1 1 1 0.0501305 5.44581 1.57074 
352 1 1 1 2.385 5.87822 1.7211 
445 1 1 1 3.3453 5.5378 1.40779 
221 1 1 1 5.688 5.88686 1.48609 
223 1 1 1 0.570792 6.37611 1.50136 
159 1 1 1 1.59125 6.51545 1.62225 
416 1 1 1 4.23035 6.1292 1.5457 
332 1 1 1 6.93147 6.19444 1.9979 
296 1 1 1 2.46505 6.87814 1.99577 
2 1 1 1 4.61672 7.13333 1.69174 
10 1 1 1 5.82055 7.01556 1.43428 
233 1 1 1 7.17809 7.191 1.7749 
407 1 1 1 1.69296 7.7179 1.56178 
48 1 1 1 3.56688 7.44045 1.68211 
371 1 1 1 1.17446 0.379532 2.48607 
537 1 1 1 4.66917 0.0979454 2.17222 
378 1 1 1 7.69784 0.0327257 2.39926 
167 1 1 1 0.530926 1.06686 2.10887 
311 1 1 1 2.44715 0.974938 2.50911 
107 1 1 1 7.05298 1.1948 2.07625 
49 1 1 1 3.46742 1.4478 2.39957 
555 1 1 1 4.64213 1.41984 2.11288 
163 1 1 1 5.88811 1.79438 2.06542 
170 1 1 1 1.43272 2.59431 2.36962 
60 1 1 1 4.17613 2.40452 2.17259 
427 1 1 1 6.74405 2.41028 2.24168 
145 1 1 1 0.231778 3.30957 2.12621 
133 1 1 1 3.21295 3.08839 2.45561 
92 1 1 1 4.70596 3.25677 2.08162 
533 1 1 1 6.40236 3.43965 2.44673 
142 1 1 1 2.91681 4.09023 2.33338 
541 1 1 1 4.22652 4.25123 2.06191 
444 1 1 1 5.83603 4.63983 2.4968 
363 1 1 1 1.82956 4.94113 2.33018 
464 1 1 1 2.85983 5.17683 2.3655 
172 1 1 1 4.90417 5.22278 2.35947 
29 1 1 1 0.787949 5.90811 2.62511 
96 1 1 1 3.88864 5.42697 2.37874 
436 1 1 1 5.98878 5.68164 2.62869 
283 1 1 1 3.32441 6.3269 2.25748 
259 1 1 1 5.03509 6.32932 2.27203 
194 1 1 1 1.4896 7.15037 2.45617 
54 1 1 1 4.06585 7.29792 2.54775 
139 1 1 1 5.10289 7.28296 2.66196 
422 1 1 1 5.97935 6.71517 2.54967 
579 1 1 1 0.574803 7.65837 2.0462 
558 1 1 1 5.90522 7.95035 2.16344 
199 1 1 1 0.445796 0.657335 3.12222 
554 1 1 1 2.04336 0.0248293 2.97984 
469 1 1 1 3.871 0.651166 2.9277 
544 1 1 1 4.78558 0.116524 3.19092 
152 1 1 1 1.7519 1.17453 3.25856 
414 1 1 1 5.53581 1.3186 2.92236 
419 1 1 1 6.37572 0.660502 2.74144 
577 1 1 1 7.42621 0.716763 3.11815 
214 1 1 1 0.842221 1.82918 2.82086 
204 1 1 1 2.16826 1.96822 2.69761 
168 1 1 1 4.08162 1.77963 3.28948 
348 1 1 1 6.70634 1.74094 3.04958 
578 1 1 1 7.81229 1.66244 2.7012 
32 1 1 1 0.0872019 2.62932 2.94057 
402 1 1 1 3.14806 2.18482 3.07427 
30 1 1 1 5.09232 2.49527 2.86253 
247 1 1 1 4.29809 3.11503 3.05259 
14 1 1 1 0.705603 3.42413 3.07918 
336 1 1 1 2.21356 3.39164 2.74046 
75 1 1 1 3.44354 3.60295 3.31133 
248 1 1 1 5.52168 3.44141 2.99029 
140 1 1 1 7.48552 3.60626 2.83547 
179 1 1 1 0.290618 4.46747 2.80315 
52 1 1 1 1.42477 4.00802 2.66798 
196 1 1 1 2.24038 4.5029 3.26531 
70 1 1 1 4.50797 4.23828 3.05108 
377 1 1 1 6.56938 4.28329 3.1018 
438 1 1 1 1.21909 4.82973 3.21441 
278 1 1 1 3.56138 4.77071 3.20309 
345 1 1 1 7.43773 5.17111 2.69261 
231 1 1 1 0.0536016 5.78649 3.29823 
466 1 1 1 4.5729 5.50263 3.34362 
38 1 1 1 0.0162336 6.57319 2.66976 
18 1 1 1 2.26375 6.49911 2.94953 
506 1 1 1 7.06084 6.26964 3.00774 
553 1 1 1 2.95759 7.60132 3.11429 
411 1 1 1 6.81505 7.45475 2.72581 
143 1 1 1 7.61478 7.46659 3.32605 
135 1 1 1 6.66235 0.412759 3.7516 
448 1 1 1 0.681225 1.29579 3.87008 
182 1 1 1 2.91572 0.803378 3.49907 
273 1 1 1 7.43243 1.62625 3.84942 
329 1 1 1 0.605205 2.44 3.89927 
144 1 1 1 3.93753 2.57766 3.91805 
485 1 1 1 5.84195 2.13905 3.4716 
498 1 1 1 2.28536 2.8008 3.5759 
123 1 1 1 6.61698 2.81194 3.43312 
570 1 1 1 1.56856 3.58078 3.60408 
431 1 1 1 7.87205 3.40251 3.85745 
110 1 1 1 0.742835 4.28884 3.92207 
303 1 1 1 7.62162 4.34741 3.62268 
188 1 1 1 5.71928 4.8883 3.46584 
222 1 1 1 1.79836 5.65055 3.4037 
195 1 1 1 2.95162 5.67636 3.38675 
388 1 1 1 5.47161 5.97876 3.60586 
57 1 1 1 6.57719 5.52482 3.49231 
507 1 1 1 2.40132 6.39212 3.94567 
441 1 1 1 4.53207 6.43837 3.73603 
375 1 1 1 0.376757 6.70967 3.6895 
45 1 1 1 1.7212 7.26975 3.67198 
425 1 1 1 3.29049 6.70391 3.51424 
351 1 1 1 5.39589 7.07804 3.8533 
512 1 1 1 6.29194 6.69302 3.56666 
27 1 1 1 0.762179 7.6326 3.4304 
76 1 1 1 3.98682 7.67544 3.66934 
531 1 1 1 5.94261 7.79978 3.39165 
510 1 1 1 1.31893 0.0700329 4.23729 
551 1 1 1 3.72471 0.0721912 4.5841 
405 1 1 1 2.18994 0.886426 4.18827 
134 1 1 1 3.95722 1.09246 4.11972 
489 1 1 1 5.29972 0.978879 4.07409 
560 1 1 1 7.96097 0.949551 4.62133 
372 1 1 1 1.73963 1.79038 4.06716 
443 1 1 1 3.1784 1.80001 4.20194 
367 1 1 1 6.04653 1.45525 4.63728 
173 1 1 1 5.04157 2.21216 4.14366 
576 1 1 1 7.1716 2.58625 4.30602 
526 1 1 1 1.44138 2.88412 4.39616 
490 1 1 1 3.11926 3.10816 4.15047 
474 1 1 1 5.85713 2.74996 4.42189 
155 1 1 1 2.1226 3.7695 4.61245 
344 1 1 1 4.07346 3.6384 4.10588 
206 1 1 1 5.0284 3.3917 4.46324 
212 1 1 1 6.71517 3.56933 4.17284 
403 1 1 1 2.87724 4.24855 4.00374 
202 1 1 1 3.79555 4.53504 4.49027 
497 1 1 1 5.69425 4.19695 4.33201 
218 1 1 1 6.77339 4.60697 4.2357 
354 1 1 1 7.74606 4.10252 4.61917 
40 1 1 1 2.37652 5.21623 4.16097 
41 1 1 1 0.873599 5.8419 4.00503 
569 1 1 1 3.43036 5.96962 4.38261 
166 1 1 1 4.59705 5.419 4.39516 
580 1 1 1 5.90135 5.34818 4.38407 
340 1 1 1 7.41518 5.45178 4.14751 
137 1 1 1 6.33468 6.361 4.62982 
381 1 1 1 1.02738 6.88095 4.46441 
447 1 1 1 3.99192 6.87954 4.49622 
339 1 1 1 7.36087 6.82712 4.05707 
19 1 1 1 0.0794099 7.97201 4.1349 
549 1 1 1 2.72802 7.9196 4.18196 
337 1 1 1 4.69462 7.9907 4.33554 
458 1 1 1 7.04506 7.70786 4.47458 
289 1 1 1 0.705595 0.134801 5.12034 
89 1 1 1 1.98919 0.484511 5.23378 
229 1 1 1 4.61002 0.447101 5.31645 
102 1 1 1 1.30301 1.02845 4.68717 
81 1 1 1 3.01016 0.748904 4.9568 
124 1 1 1 6.88125 0.895028 4.94641 
254 1 1 1 2.28724 1.49471 5.28349 
268 1 1 1 3.42042 1.76741 5.2484 
7 1 1 1 4.4432 1.65585 4.7901 
294 1 1 1 6.77105 1.95503 5.26803 
246 1 1 1 7.78201 1.93771 4.83662 
429 1 1 1 0.816227 2.10214 4.92189 
63 1 1 1 4.02146 2.62852 5.12372 
203 1 1 1 5.14621 2.43207 5.29951 
21 1 1 1 0.44446 3.04401 4.77471 
455 1 1 1 2.43021 2.68672 4.83174 
279 1 1 1 7.02032 3.03692 5.277 
119 1 1 1 1.05725 3.90149 4.79727 
58 1 1 1 4.16731 3.65272 5.2215 
433 1 1 1 6.17435 3.69377 5.14153 
472 1 1 1 1.76915 4.63654 4.97556 
263 1 1 1 2.9132 4.49988 5.08959 
88 1 1 1 4.81876 4.61356 4.95728 
200 1 1 1 0.334298 5.20346 4.66212 
265 1 1 1 6.12737 4.69693 5.17034 
413 1 1 1 1.72611 5.81349 4.68126 
305 1 1 1 2.43018 5.43587 5.31261 
335 1 1 1 3.91523 5.62425 5.22231 
160 1 1 1 5.40793 5.83849 5.16445 
178 1 1 1 7.03933 5.6897 5.10098 
476 1 1 1 0.984692 6.03715 5.3363 
4 1 1 1 0.0439729 7.23938 5.09924 
227 1 1 1 2.90274 7.00498 4.82152 
103 1 1 1 4.98955 6.65022 4.73002 
106 1 1 1 7.0764 6.83438 5.17933 
174 1 1 1 1.9501 7.46626 4.7639 
34 1 1 1 5.80787 7.98644 4.74466 
118 1 1 1 3.65914 0.446936 5.76731 
382 1 1 1 5.58871 0.173219 5.85323 
459 1 1 1 7.56822 0.277746 5.59182 
210 1 1 1 0.583685 1.12732 5.4519 
437 1 1 1 2.66301 0.841548 5.95685 
418 1 1 1 5.88524 1.29785 5.70121 
361 1 1 1 4.62471 1.36686 5.79879 
468 1 1 1 0.466025 2.60545 5.78672 
566 1 1 1 1.65105 2.73685 5.50574 
331 1 1 1 6.16152 2.73379 5.70862 
3 1 1 1 0.0759449 3.75945 5.62802 
17 1 1 1 2.13304 3.63206 5.79893 
528 1 1 1 3.10982 3.50005 5.4433 
552 1 1 1 5.26677 3.8177 5.72755 
347 1 1 1 6.90504 3.83415 5.95273 
244 1 1 1 1.04069 4.41753 5.69783 
319 1 1 1 4.23986 4.63593 5.78119 
307 1 1 1 7.41743 4.58255 5.47695 
295 1 1 1 5.21651 5.04848 5.96058 
1 1 1 1 6.26289 5.88967 5.73431 
488 1 1 1 2.25073 6.44293 5.33974 
112 1 1 1 3.36193 6.43628 5.60186 
420 1 1 1 4.51278 6.32215 5.63567 
186 1 1 1 1.04452 7.29084 5.59302 
59 1 1 1 4.88979 7.32202 5.80235 
487 1 1 1 5.99352 6.85177 5.55271 
562 1 1 1 2.67165 7.71742 5.53195 
116 1 1 1 3.70137 7.41521 5.37521 
426 1 1 1 6.52334 7.73972 5.71531 
518 1 1 1 0.301525 0.0612655 6.27802 
37 1 1 1 1.33383 0.192197 6.18417 
353 1 1 1 4.4888 0.607882 6.51617 
217 1 1 1 0.611241 1.00434 6.46289 
176 1 1 1 1.62721 1.26439 6.10218 
251 1 1 1 6.75888 0.952254 6.16404 
230 1 1 1 2.54429 1.78623 6.29184 
260 1 1 1 3.53715 1.57278 6.45465 
564 1 1 1 7.90916 1.66121 6.13501 
79 1 1 1 0.972216 2.02626 6.60648 
548 1 1 1 3.09242 2.59776 6.03944 
432 1 1 1 4.20634 2.27966 6.04767 
456 1 1 1 5.4302 2.07596 6.24942 
87 1 1 1 2.20832 2.87805 6.63319 
161 1 1 1 4.3992 3.26261 6.14595 
184 1 1 1 7.19658 2.89226 6.30075 
228 1 1 1 1.18627 3.45303 6.46017 
365 1 1 1 3.47868 3.50946 6.48989 
417 1 1 1 5.97658 3.64547 6.48687 
56 1 1 1 2.81524 4.65694 6.11216 
117 1 1 1 0.244314 4.9485 6.15554 
47 1 1 1 1.76798 4.99674 6.08579 
293 1 1 1 6.4243 4.76682 6.25194 
148 1 1 1 0.969655 5.68435 6.28148 
44 1 1 1 3.15586 5.60362 6.12906 
452 1 1 1 4.66997 5.66153 6.57715 
281 1 1 1 6.88343 5.73582 6.50443 
573 1 1 1 1.40651 6.58638 6.28865 
71 1 1 1 3.82532 6.2723 6.49073 
481 1 1 1 5.43863 6.33212 6.23533 
6 1 1 1 7.85655 6.08389 6.24016 
84 1 1 1 0.251602 7.05312 6.22621 
213 1 1 1 2.52533 6.6984 6.27132 
516 1 1 1 7.03384 6.8327 6.20673 
301 1 1 1 2.10599 7.60223 6.44727 
197 1 1 1 3.54646 7.58637 6.66404 
387 1 1 1 1.87341 0.401245 7.23494 
536 1 1 1 6.55533 0.114872 6.73387 
241 1 1 1 7.62216 0.668259 6.82846 
53 1 1 1 5.53751 0.845001 6.71988 
440 1 1 1 1.97897 1.94715 7.22372 
35 1 1 1 6.33413 1.55954 6.94525 
23 1 1 1 3.75248 2.61534 6.9566 
225 1 1 1 4.71251 2.21553 7.12832 
175 1 1 1 6.34397 2.55346 6.71886 
147 1 1 1 0.368471 2.91018 6.87204 
93 1 1 1 5.21634 2.99993 6.76704 
187 1 1 1 0.106211 3.92863 6.78026 
258 1 1 1 2.5977 3.88246 6.85666 
334 1 1 1 0.972101 4.47099 7.04517 
129 1 1 1 3.41616 4.47805 6.96267 
323 1 1 1 4.62867 4.15303 6.81961 
373 1 1 1 7.04471 4.89904 7.17348 
257 1 1 1 0.240436 5.42879 7.09592 
314 1 1 1 2.33785 5.52433 6.81273 
390 1 1 1 3.38046 5.54665 7.33066 
77 1 1 1 5.94999 5.85657 6.95824 
238 1 1 1 0.87179 6.30064 7.08967 
386 1 1 1 6.62455 6.61239 7.2586 
86 1 1 1 4.63395 6.81208 6.77455 
22 1 1 1 5.64395 6.83924 7.34153 
243 1 1 1 7.94275 6.74051 7.25842 
401 1 1 1 5.441 7.72952 6.80624 
492 1 1 1 7.61002 7.64674 6.93245 
271 1 1 1 0.451857 0.512009 7.56362 
561 1 1 1 4.68482 0.630376 7.51657 
434 1 1 1 6.78478 0.282235 7.7323 
384 1 1 1 1.20739 1.22066 7.58027 
157 1 1 1 2.53103 1.07909 7.84422 
67 1 1 1 3.88251 1.24405 7.37385 
125 1 1 1 5.85976 0.763041 7.69916 
171 1 1 1 6.83636 1.32192 7.80158 
237 1 1 1 7.97652 1.45652 7.55981 
547 1 1 1 0.791527 2.35664 7.61002 
442 1 1 1 2.91336 2.6045 7.85026 
126 1 1 1 5.71749 2.60245 7.64188 
162 1 1 1 7.45797 2.4182 7.55067 
514 1 1 1 4.5361 3.14515 7.49284 
280 1 1 1 1.63284 3.7582 7.34789 
325 1 1 1 3.46144 3.44985 7.54058 
269 1 1 1 5.15514 3.92803 8.00561 
500 1 1 1 6.3811 3.3831 7.38746 
587 1 1 1 7.37093 3.5243 7.44669 
557 1 1 1 2.54089 4.26052 7.81406 
205 1 1 1 4.26468 4.32151 7.73592 
473 1 1 1 5.87719 4.26875 7.363 
267 1 1 1 7.94924 4.63021 7.68811 
275 1 1 1 1.40671 4.707 7.932 
164 1 1 1 4.98875 5.09522 7.34526 
100 1 1 1 1.57657 5.71892 7.57043 
346 1 1 1 7.35039 5.87567 7.52647 
31 1 1 1 0.288808 6.05282 7.9239 
288 1 1 1 2.49429 6.519 7.37775 
451 1 1 1 4.3596 6.12471 7.47411 
408 1 1 1 1.58865 6.98234 7.44412 
534 1 1 1 3.56699 6.81123 7.33771 
149 1 1 1 7.37459 7.30545 7.87037 
523 1 1 1 2.77186 7.93701 7.54694 
540 1 1 1 4.50791 7.61783 7.45534 
539 1 1 1 5.45926 7.83526 7.81904 
256 1 1 1 1.85296 -0.000352982 8.28245 
130 1 1 1 3.58026 0.520571 8.06956 
465 1 1 1 4.7004 0.249381 8.50781 
150 1 1 1 6.03339 0.251732 8.57017 
543 1 1 1 1.02803 1.11935 8.56123 
317 1 1 1 4.96201 1.2494 8.37842 
235 1 1 1 7.66119 0.696583 8.14665 
300 1 1 1 2.07697 1.88232 8.2445 
51 1 1 1 3.31718 1.66077 8.13272 
374 1 1 1 4.30838 1.97815 8.01153 
15 1 1 1 6.00314 1.76696 8.19756 
250 1 1 1 0.915908 2.87927 8.4777 
470 1 1 1 2.34385 2.95469 8.66358 
453 1 1 1 5.20543 2.85364 8.56322 
13 1 1 1 6.28446 2.99894 8.45181 
471 1 1 1 4.20287 3.41489 8.52826 
25 1 1 1 7.86202 3.63686 8.31419 
496 1 1 1 1.89135 4.03091 8.57479 
364 1 1 1 6.56749 4.12078 8.27427 
574 1 1 1 0.522762 5.1621 8.31989 
239 1 1 1 3.17031 4.82463 8.62608 
495 1 1 1 4.19766 4.74979 8.64032 
270 1 1 1 5.39336 5.17737 8.28996 
262 1 1 1 6.36957 5.14023 7.99631 
389 1 1 1 2.68249 5.96451 8.23806 
567 1 1 1 3.73551 5.76229 8.27609 
394 1 1 1 1.19723 6.45111 8.28188 
581 1 1 1 4.85039 6.50298 8.27692 
527 1 1 1 5.83331 6.26955 8.23039 
457 1 1 1 7.00617 6.46203 8.52415 
101 1 1 1 2.37296 7.05203 8.52364 
39 1 1 1 3.37888 6.89729 8.31613 
343 1 1 1 6.26299 7.19481 8.07334 
211 1 1 1 0.356256 7.48385 7.99702 
20 1 1 1 0.668142 0.117927 8.77737 
450 1 1 1 1.64518 0.656303 9.30914 
501 1 1 1 2.65073 0.192287 8.96152 
90 1 1 1 2.42585 1.17237 8.91964 
138 1 1 1 3.75188 1.00013 9.01006 
12 1 1 1 6.92676 0.722798 8.85086 
310 1 1 1 5.20128 2.00166 9.12306 
291 1 1 1 7.60962 1.61367 8.68165 
78 1 1 1 3.02648 2.23796 9.01673 
491 1 1 1 4.26675 2.37342 8.9961 
104 1 1 1 6.81851 2.23534 8.89656 
517 1 1 1 7.78374 2.6055 8.70932 
360 1 1 1 1.33694 3.37199 9.3329 
328 1 1 1 3.23378 3.69163 8.76237 
128 1 1 1 5.48558 3.80193 8.94569 
525 1 1 1 6.96534 3.77104 9.14592 
460 1 1 1 0.811168 4.1941 8.82292 
309 1 1 1 6.18788 4.58824 9.11376 
475 1 1 1 2.14976 4.99152 8.78288 
306 1 1 1 7.53856 4.90496 8.72873 
499 1 1 1 0.784872 5.57962 9.20058 
454 1 1 1 4.16492 5.74452 9.29705 
355 1 1 1 6.31619 5.76724 9.03658 
338 1 1 1 7.83098 5.86125 8.85227 
308 1 1 1 1.98329 6.26271 8.99957 
312 1 1 1 2.96253 6.32204 9.20374 
484 1 1 1 0.362234 6.76164 8.98624 
350 1 1 1 1.24455 7.28627 8.93464 
546 1 1 1 3.67515 7.97598 8.95131 
357 1 1 1 5.32967 7.35958 8.71009 
64 1 1 1 7.68834 7.54541 8.82577 
215 1 1 1 5.57558 0.544913 9.60673 
242 1 1 1 6.98649 0.304526 9.86991 
201 1 1 1 7.8619 0.591701 9.39003 
583 1 1 1 2.99219 0.831362 9.72883 
486 1 1 1 4.81359 1.22354 9.94609 
428 1 1 1 0.481825 1.4527 9.40223 
169 1 1 1 2.49715 1.95733 9.93101 
26 1 1 1 3.64794 1.63716 9.79976 
385 1 1 1 6.16097 1.33501 9.34841 
5 1 1 1 7.61804 1.95043 9.89007 
529 1 1 1 0.583515 2.62586 9.55321 
16 1 1 1 1.6855 2.33755 9.39324 
400 1 1 1 6.49993 2.15799 9.87039 
392 1 1 1 2.69711 3.2244 9.56496 
285 1 1 1 3.76518 3.26541 9.53082 
342 1 1 1 5.73031 2.98702 9.63387 
253 1 1 1 7.28275 3.03575 9.818 
532 1 1 1 0.0110585 3.8691 9.54994 
477 1 1 1 4.76114 3.39003 9.6741 
462 1 1 1 1.07784 4.61945 9.72756 
550 1 1 1 2.6006 4.2356 9.41945 
95 1 1 1 3.98622 4.24549 9.48951 
36 1 1 1 5.07926 4.57788 9.46782 
538 1 1 1 6.99394 4.72421 9.79548 
98 1 1 1 7.94957 5.1485 9.69577 
333 1 1 1 1.75874 5.51624 9.69579 
127 1 1 1 3.23393 5.43497 9.61505 
158 1 1 1 5.36619 5.81436 9.36806 
198 1 1 1 2.24648 6.46043 9.94748 
585 1 1 1 3.72693 6.96383 9.5135 
290 1 1 1 4.74213 6.71143 9.33503 
97 1 1 1 6.13783 7.09233 9.48307 
141 1 1 1 7.22267 6.89294 9.77157 
508 1 1 1 0.314475 7.7279 9.7128 
494 1 1 1 2.09922 7.36876 9.53382 
94 1 1 1 3.12315 7.83902 9.86206 
207 1 1 1 4.69447 7.75799 9.48397 
111 1 1 1 0.888769 0.0430542 10.6161 
356 1 1 1 1.90511 0.316077 10.3745 
530 1 1 1 5.37344 0.596077 10.6211 
582 1 1 1 1.03536 1.04959 10.1646 
245 1 1 1 3.79999 0.731669 10.3243 
185 1 1 1 6.44726 1.14225 10.3643 
521 1 1 1 7.78983 1.04602 10.3 
362 1 1 1 0.542499 1.89537 10.4711 
156 1 1 1 5.64942 1.75031 10.2239 
330 1 1 1 3.36065 2.59476 10.1846 
208 1 1 1 4.80528 2.37327 10.1595 
272 1 1 1 0.167513 2.99645 10.555 
165 1 1 1 1.28983 2.9895 10.4091 
424 1 1 1 2.26546 2.84774 10.5766 
435 1 1 1 0.691957 3.88009 10.3212 
220 1 1 1 1.70051 3.93374 10.2471 
519 1 1 1 2.70545 3.88586 10.3676 
114 1 1 1 4.15209 3.41135 10.5014 
467 1 1 1 6.21402 3.79839 10.3963 
480 1 1 1 7.21044 3.93236 10.5438 
463 1 1 1 3.76231 4.38718 10.486 
318 1 1 1 4.88062 4.09747 10.4087 
524 1 1 1 4.15103 5.27741 10.1984 
180 1 1 1 6.05268 5.13932 10.049 
376 1 1 1 0.76037 5.64243 10.3132 
216 1 1 1 5.10098 5.48321 10.5823 
24 1 1 1 3.69692 6.18166 10.142 
287 1 1 1 4.79404 6.43947 10.3955 
219 1 1 1 6.5942 6.17032 10.4226 
122 1 1 1 0.311136 7.03482 10.4868 
482 1 1 1 1.27208 7.0477 10.0159 
397 1 1 1 2.99087 6.8214 10.5219 
131 1 1 1 4.17937 7.69181 10.5046 
299 1 1 1 5.16419 7.49542 10.5177 
504 1 1 1 6.35743 7.69243 10.3593 
28 1 1 1 7.88499 0.118973 10.6901 
404 1 1 1 0.396966 1.00769 11.3136 
209 1 1 1 1.54634 0.964739 11.1052 
391 1 1 1 4.46077 1.07461 11.1897 
136 1 1 1 7.13423 0.724648 11.1731 
505 1 1 1 2.41186 1.44294 10.899 
193 1 1 1 3.51495 1.6746 10.9935 
568 1 1 1 5.40732 1.94985 11.2278 
584 1 1 1 4.00298 2.56064 11.1182 
439 1 1 1 7.25309 2.54346 10.7078 
46 1 1 1 5.85355 2.7703 10.8043 
177 1 1 1 3.40188 3.42609 11.2532 
72 1 1 1 5.58308 3.73743 11.2092 
91 1 1 1 7.70595 4.55869 11.1714 
120 1 1 1 1.19126 4.67504 10.7579 
105 1 1 1 2.45836 5.04533 10.6967 
109 1 1 1 3.34821 5.11834 11.3067 
255 1 1 1 4.3932 4.86915 11.3083 
224 1 1 1 5.41029 4.74113 11.3102 
535 1 1 1 3.85793 5.97381 11.1752 
298 1 1 1 7.53617 5.6605 10.8159 
226 1 1 1 1.62153 6.48845 10.8356 
232 1 1 1 7.08362 7.29835 10.9628 
11 1 1 1 1.89677 7.53775 11.0144 
380 1 1 1 2.98195 7.67012 11.0919 
412 1 1 1 2.52186 0.579998 11.4501 
409 1 1 1 3.58272 0.54771 11.377 
302 1 1 1 4.48282 0.0947266 11.4151 
563 1 1 1 5.95335 1.12255 11.4649 
183 1 1 1 1.60621 1.9296 11.4491 
503 1 1 1 0.144389 2.12029 11.5002 
483 1 1 1 2.91498 2.44761 11.4383 
565 1 1 1 6.72209 2.01669 11.3743 
132 1 1 1 0.902604 2.89127 11.3743 
121 1 1 1 1.89281 3.3143 11.3989 
395 1 1 1 4.98199 2.83655 11.48 
192 1 1 1 6.87353 3.25855 11.4336 
151 1 1 1 7.90103 3.29819 11.486 
369 1 1 1 4.56719 3.75054 11.4908 
9 1 1 1 0.859848 4.0414 11.4839 
189 1 1 1 2.63756 4.18315 11.4596 
461 1 1 1 6.44586 4.27786 11.4532 
264 1 1 1 0.633876 5.2625 11.3939 
415 1 1 1 6.75263 5.27431 11.4314 
571 1 1 1 1.61757 5.44711 11.4001 
322 1 1 1 2.66334 5.85054 11.4801 
55 1 1 1 5.41259 5.81381 11.4851 
181 1 1 1 0.315178 6.25976 11.3204 
399 1 1 1 4.62307 6.56751 11.424 
261 1 1 1 7.09092 6.37234 11.366 
80 1 1 1 1.02879 7.10327 11.4339 
266 1 1 1 2.48829 6.84288 11.4572 
410 1 1 1 3.48863 6.86663 11.4972 
99 1 1 1 6.02754 6.79416 11.3874 
42 1 1 1 5.36347 7.61451 11.495 
146 1 1 1 6.33568 7.90658 11.4445 
286 1 1 1 7.97368 7.48203 11.4576 
